
FAST Summary File

Predictions were generated on 09-Jun-2023 at 11:01:12 using OpenFAST, compiled as a 64-bit application using single precision at commit v3.0.0
  compiled with
    NWTC Subroutine Library
    ElastoDyn
    BeamDyn (unknown version, unknown date) [not called]
    InflowWind (unknown version, unknown date) [not called]
    AeroDyn14
    AeroDyn (unknown version, unknown date) [not called]
    ServoDyn (unknown version, unknown date) [not called]
    HydroDyn
    SubDyn (unknown version, unknown date) [not called]
    ExtPtfm_MCKF (unknown version, unknown date) [not called]
    MAP (unknown version, unknown date) [not called]
    FEAMooring (unknown version, unknown date) [not called]
    MoorDyn (v1.01.02F, 8-Apr-2016)
    OrcaFlexInterface (unknown version, unknown date) [not called]
    IceFloe (unknown version, unknown date) [not called]
    IceDyn (unknown version, unknown date) [not called]


Modeling a floating offshore turbine
Description from the FAST input file: 
  FAST          model         - of the DTU 10MW Reference Wind Turbine on INNWIND.EU TripleSpar platform

Interpolation order for input/output time histories: 1 (linear)
Number of correction iterations:  0
Number of rows in Jacobian matrix used for coupling ElastoDyn to HydroDyn:     12


   Requested Time Steps  
  -------------------------------------------------
  Component          Time Step (s)    Subcycles (-)
  -----------------  ---------------  -------------
  FAST (glue code)    2.500E-02
  ElastoDyn           2.500E-02              1
  AeroDyn14           2.500E-02              1
  HydroDyn            2.500E-02              1
  MoorDyn             2.500E-02              1
  FAST output files   2.500E-02              1


   Requested Channels in FAST Output File(s)  
  --------------------------------------------
  Number  Name                  Units                 Generated by
  ------  --------------------  --------------------  ------------
       1  Time                  (s)                   OpenFAST
       2  RotSpeed              (rpm)                 ElastoDyn
       3  GenSpeed              (rpm)                 ElastoDyn
       4  TTDspFA               (m)                   ElastoDyn
       5  TTDspSS               (m)                   ElastoDyn
       6  YawBrTAxp             (m/s^2)               ElastoDyn
       7  BldPitch1             (deg)                 ElastoDyn
       8  BldPitch2             (deg)                 ElastoDyn
       9  BldPitch3             (deg)                 ElastoDyn
      10  Azimuth               (deg)                 ElastoDyn
      11  RootMyb1              (kN-m)                ElastoDyn
      12  RootMyb2              (kN-m)                ElastoDyn
      13  RootMyb3              (kN-m)                ElastoDyn
      14  RootMyc1              (kN-m)                ElastoDyn
      15  RootMyc2              (kN-m)                ElastoDyn
      16  RootMyc3              (kN-m)                ElastoDyn
      17  PtfmSurge             (m)                   ElastoDyn
      18  PtfmSway              (m)                   ElastoDyn
      19  PtfmHeave             (m)                   ElastoDyn
      20  PtfmRoll              (deg)                 ElastoDyn
      21  PtfmPitch             (deg)                 ElastoDyn
      22  PtfmYaw               (deg)                 ElastoDyn
      23  PtfmRDxi              (deg)                 ElastoDyn
      24  PtfmRDyi              (deg)                 ElastoDyn
      25  PtfmRDzi              (deg)                 ElastoDyn
      26  PtfmTVxi              (m/s)                 ElastoDyn
      27  PtfmTVzi              (m/s)                 ElastoDyn
      28  PtfmRVxi              (deg/s)               ElastoDyn
      29  PtfmRVyi              (deg/s)               ElastoDyn
      30  PtfmRVzi              (deg/s)               ElastoDyn
      31  TwrBsMyt              (kN-m)                ElastoDyn
      32  LSShftTq              (kN-m)                ElastoDyn
      33  RotThrust             (kN)                  ElastoDyn
      34  TipDxc1               (m)                   ElastoDyn
      35  TipDyc1               (m)                   ElastoDyn
      36  Wave1Elev             (m)                   HydroDyn
